ITEM: TIMESTEP
0
ITEM: NUMBER OF ATOMS
14
ITEM: BOX BOUNDS pp pp pp
0 101
0 101
0 1001
ITEM: ATOMS id type x y z vx vy radius 
12 1 1 1 0 0 0 0.5 
11 1 1.4 1.4 0.4 0.004 0.0004 0.5 
13 1 1.3 1.3 0.3 0.003 0.0003 0.5 
14 1 1.42 1.42 1.42 0.0042 0.0042 0.4 
8 1 96.6785 33.996 92.8386 0 0 1 
3 1 70.5121 34.3653 155.635 0 0 1 
4 1 64.5821 2.52609 275.304 0 0 1 
2 1 90.1101 8.78082 422.344 0 0 1 
10 1 3.00952 22.0824 505.861 0 0 1 
5 1 55.0391 22.2645 589.855 0 0 1 
7 1 9.76835 85.5969 604.33 0 0 1 
1 1 2.68013 20.0826 650.534 0 0 1 
9 1 22.5443 74.3836 677.376 0 0 1 
6 1 81.7525 0.656375 806.625 0 0 1 
